20
	Energy:      25.8867172
C         -4.12299        2.51797       -0.01604
C         -4.31387        1.13272        0.00510
C         -2.83088        3.04882       -0.03182
C         -1.69924        2.20925       -0.02204
C         -3.20665        0.28382        0.00991
C         -1.90899        0.80641       -0.00327
H         -3.35091       -0.78947        0.02198
H         -1.10658        0.09449       -0.00726
H         -4.97557        3.18555       -0.02096
H         -2.70860        4.12476       -0.04836
O         -5.55634        0.60834        0.01874
H         -6.34571        1.16844        0.01529
N         -0.39909        2.83163       -0.04190
C          0.81746        2.21316        0.06080
H         -0.38284        3.85964       -0.13373
C          2.06997        3.03803        0.00765
H          2.12501        3.56795       -0.96628
H          2.97064        2.39599        0.11520
H          2.06334        3.78338        0.83027
O          0.91692        1.00743        0.20671
