48
	Energy:     142.3814219
C         -0.53815        6.51032       -0.61898
C          0.04269        7.22427        0.45543
C          1.31113        6.85404        0.97247
C          1.98475        5.75520        0.37529
C          1.39998        5.05539       -0.68081
C          0.15153        5.42756       -1.16842
C          1.95495        7.53962        2.05383
C          3.21982        7.08431        2.47240
N          3.20679        5.36934        0.82303
H         -0.28533        4.87171       -1.98890
H         -0.49055        8.04726        0.87227
H          1.91804        4.21596       -1.12860
C          3.82772        6.00344        1.84438
H          3.73203        7.55402        3.30031
H          4.79817        5.66077        2.17774
C          1.33581        8.72706        2.79905
C          1.90258       10.12861        2.42621
O          1.45748        8.52774        4.18543
H          0.25753        8.82973        2.58553
H          0.79523        7.83188        4.43859
N          1.61630       10.54797        1.01594
C          4.02869       10.97326        0.40615
C          3.87343       11.57165        1.83322
C          1.54687       12.03617        0.98584
C          2.75737       12.64895        1.75742
H          0.58868       12.42431        1.39327
H          1.58138       12.36427       -0.07862
H          2.48079       12.91587        2.80146
H          3.07720       13.58293        1.24682
C          3.39453       10.43842        2.78420
H          3.45605       10.71378        3.85941
H          4.08165        9.59128        2.61216
H          1.29904       10.80627        3.08000
C          5.36638       10.26661        0.21940
H          4.82267       12.02589        2.19292
C          2.73486       10.12839        0.11955
H          4.06276       11.84407       -0.28707
H          2.90960        9.06424        0.31790
H          2.46084       10.19122       -0.95541
C          5.53713        9.00708       -0.20964
H          6.25986       10.84287        0.44273
H          4.71920        8.35455       -0.47761
H          6.54370        8.61358       -0.30832
O         -1.75479        6.81685       -1.15252
C         -2.56028        7.91589       -0.90768
H         -3.51791        7.57258       -0.46498
H         -2.78124        8.41435       -1.87378
H         -2.11398        8.67899       -0.24795
