51
	Energy:      84.2042668
C         -0.50627        1.37392       -0.75607
C         -0.81184        0.13371        0.04437
C          0.37624       -0.81113       -0.05137
H         -1.72485       -0.38053       -0.33325
H         -1.02122        0.40649        1.09632
C          1.76546       -0.16380        0.02896
H          0.33552       -1.33769       -1.02990
H          0.23393       -1.57120        0.74858
C          1.98088        1.20448       -0.00879
C          0.72139        2.13975       -0.16517
H         -1.40654        2.03019       -0.77315
H         -0.30433        1.06330       -1.80740
C          0.35549        2.75176        1.20943
H         -0.56373        3.37558        1.12627
H          1.17443        3.39236        1.59304
H          0.16644        1.97486        1.97747
C          0.95976        3.30711       -1.15611
H          0.02714        3.90223       -1.28507
H          1.26500        2.92236       -2.15151
H          1.71696        4.03081       -0.80096
C          2.86763       -1.18036        0.12953
H          2.46451       -2.21655        0.15993
H          3.43324       -1.02924        1.07167
H          3.50917       -1.12558       -0.77112
C          3.36808        1.89919        0.07042
C          4.66276        1.41130        0.06505
C          5.94792        2.26014        0.07954
C          7.18992        1.65612        0.04883
C          8.52370        2.39514        0.04528
C          9.72833        1.75418        0.01316
C         11.10972        2.40142        0.02545
C         12.20454        1.58747        0.02490
C         13.65403        2.04920        0.07554
C          5.90693        3.77473        0.10142
H          6.43319        4.14758        1.00498
H          4.90204        4.22040        0.11494
H          6.41194        4.16753       -0.80697
C         11.32719        3.90326        0.06130
H         11.90855        4.17993        0.96790
H         10.39444        4.48961        0.07480
H         11.90254        4.22762       -0.83242
H          3.28503        2.96067        0.11493
H          4.84482        0.35625        0.01811
H          7.23428        0.57123        0.02354
H          8.51316        3.47303        0.07505
H          9.70699        0.66891       -0.01393
H         12.06045        0.51163        0.01004
O         13.98797        2.79585       -1.06225
H         14.96038        2.99325       -0.98770
H         14.30949        1.14860        0.11718
H         13.82964        2.65341        0.99340
